#INFO: **** input file is /mnt/d/Studio_Lufter/Ibmq_camp2020/utils/molecular_data.py ****
from qiskit.chemistry.drivers import PySCFDriver, UnitsType
import random
from tqdm import tqdm
from pyscf import scf, gto

for i in tqdm(range(10000)):
    mol = gto.Mole()
    mol.verbose = 5
    mol.output = 'o2.log'
    dist = str(random.uniform(0.5, 4)) 
    mol.atom = 'Li .0 .0 .0; H .0 .0 ' + dist
    mol.basis = 'sto3g'
    mol.build()
    m = scf.RHF(mol)
    print(mol._atom)
    print('E(HF) = %g' % m.kernel())
    f = open('states.txt', "a")
    f.write(dist + ' ' + str(m.kernel())+"\n")



#INFO: ******************** input file end ********************


System: uname_result(system='Linux', node='ZEPHEWABOHU', release='4.4.0-19041-Microsoft', version='#1-Microsoft Fri Dec 06 14:06:00 PST 2019', machine='x86_64', processor='x86_64')  Threads 16
Python 3.8.2 (default, Jul 16 2020, 14:00:26) 
[GCC 9.3.0]
numpy 1.19.1  scipy 1.4.1
Date: Wed Sep  9 13:44:17 2020
PySCF version 1.7.4
PySCF path  /mnt/d/Studio_Lufter/qt_env/lib/python3.8/site-packages/pyscf

[CONFIG] conf_file None
[INPUT] verbose = 5
[INPUT] max_memory = 4000 
[INPUT] num. atoms = 2
[INPUT] num. electrons = 4
[INPUT] charge = 0
[INPUT] spin (= nelec alpha-beta = 2S) = 0
[INPUT] symmetry False subgroup None
[INPUT] Mole.unit = angstrom
[INPUT]  1 Li     0.000000000000   0.000000000000   0.000000000000 AA    0.000000000000   0.000000000000   0.000000000000 Bohr
[INPUT]  2 H      0.000000000000   0.000000000000   0.834999030155 AA    0.000000000000   0.000000000000   1.577919481270 Bohr
[INPUT] ---------------- BASIS SET ---------------- 
[INPUT] l, kappa, [nprim/nctr], expnt,             c_1 c_2 ...
[INPUT] H
[INPUT] 0    0    [3    /1   ]  3.42525091        0.15432897
                                0.62391373        0.53532814
                                0.1688554         0.44463454
[INPUT] Li
[INPUT] 0    0    [3    /1   ]  16.119575         0.15432897
                                2.9362007         0.53532814
                                0.7946505         0.44463454
[INPUT] 0    0    [3    /1   ]  0.6362897         -0.09996723
                                0.1478601         0.39951283
                                0.0480887         0.70011547
[INPUT] 1    0    [3    /1   ]  0.6362897         0.15591627
                                0.1478601         0.60768372
                                0.0480887         0.39195739

nuclear repulsion = 1.90123769660672
number of shells = 4
number of NR pGTOs = 18
number of NR cGTOs = 6
basis = sto3g
ecp = {}
CPU time:     36450.42


******** <class 'pyscf.scf.hf.RHF'> ********
method = RHF
initial guess = minao
damping factor = 0
level_shift factor = 0
DIIS = <class 'pyscf.scf.diis.CDIIS'>
diis_start_cycle = 1
diis_space = 8
SCF conv_tol = 1e-09
SCF conv_tol_grad = None
SCF max_cycles = 50
direct_scf = True
direct_scf_tol = 1e-13
chkfile to save SCF result = /mnt/d/Studio_Lufter/Ibmq_camp2020/utils/tmp4dw87jv_
max_memory 4000 MB (current use 180 MB)
Set gradient conv threshold to 3.16228e-05
E1 = -13.47683089678747  E_coul = 3.880892836244274
init E= -7.69470036393648
cond(S) = 8.669299404723427
    CPU time for initialize scf      0.28 sec, wall time      0.02 sec
  HOMO = -0.27600373966001  LUMO = 0.0177776487300502
  mo_energy =
[-2.51905718 -0.27600374  0.01777765  0.12006031  0.12006031  0.4837065 ]
E1 = -13.634805693602752  E_coul = 4.09110472267059
cycle= 1 E= -7.64246327432544  delta_E= 0.0522  |g|= 0.0888  |ddm|= 1.34
    CPU time for cycle= 1      0.00 sec, wall time      0.00 sec
  HOMO = -0.312482678096765  LUMO = 0.0710540019576969
  mo_energy =
[-2.41593687 -0.31248268  0.071054    0.14956748  0.14956748  0.58680748]
E1 = -13.631112348105576  E_coul = 4.081237220062756
cycle= 2 E= -7.6486374314361  delta_E= -0.00617  |g|= 0.0307  |ddm|= 0.176
    CPU time for cycle= 2      0.00 sec, wall time      0.00 sec
  HOMO = -0.314307456947858  LUMO = 0.0701073705631341
  mo_energy =
[-2.42355703 -0.31430746  0.07010737  0.14915615  0.14915615  0.58997576]
E1 = -13.635502693636735  E_coul = 4.08356695663894
cycle= 3 E= -7.65069804039108  delta_E= -0.00206  |g|= 0.0117  |ddm|= 0.129
    CPU time for cycle= 3      0.00 sec, wall time      0.00 sec
  HOMO = -0.310110966808235  LUMO = 0.0703969149309185
  mo_energy =
[-2.42245202 -0.31011097  0.07039691  0.15145381  0.15145381  0.59526414]
E1 = -13.63922635457067  E_coul = 4.086863995987257
cycle= 4 E= -7.65112466197669  delta_E= -0.000427  |g|= 0.000475  |ddm|= 0.0899
    CPU time for cycle= 4      0.00 sec, wall time      0.00 sec
  HOMO = -0.310028867436624  LUMO = 0.0701361589586069
  mo_energy =
[-2.42264367 -0.31002887  0.07013616  0.15142266  0.15142266  0.594863  ]
E1 = -13.639741908650558  E_coul = 4.087379246911301
cycle= 5 E= -7.65112496513254  delta_E= -3.03e-07  |g|= 5.67e-05  |ddm|= 0.00247
    CPU time for cycle= 5      0.25 sec, wall time      0.00 sec
  HOMO = -0.309979580657952  LUMO = 0.0701824259053259
  mo_energy =
[-2.42251512 -0.30997958  0.07018243  0.15145788  0.15145788  0.59496635]
E1 = -13.63971657011378  E_coul = 4.087353907957542
cycle= 6 E= -7.65112496554952  delta_E= -4.17e-10  |g|= 1.69e-05  |ddm|= 0.000134
    CPU time for cycle= 6      0.00 sec, wall time      0.01 sec
  HOMO = -0.30997965164212  LUMO = 0.0701737601588925
  mo_energy =
[-2.42252473 -0.30997965  0.07017376  0.15145535  0.15145535  0.59495012]
E1 = -13.639731640253446  E_coul = 4.087368977816006
Extra cycle  E= -7.65112496583072  delta_E= -2.81e-10  |g|= 5.26e-06  |ddm|= 4.93e-05
    CPU time for scf_cycle      0.78 sec, wall time      0.05 sec
    CPU time for SCF      0.78 sec, wall time      0.05 sec
converged SCF energy = -7.65112496583072


******** <class 'pyscf.scf.hf.RHF'> ********
method = RHF
initial guess = minao
damping factor = 0
level_shift factor = 0
DIIS = <class 'pyscf.scf.diis.CDIIS'>
diis_start_cycle = 1
diis_space = 8
SCF conv_tol = 1e-09
SCF conv_tol_grad = None
SCF max_cycles = 50
direct_scf = True
direct_scf_tol = 1e-13
chkfile to save SCF result = /mnt/d/Studio_Lufter/Ibmq_camp2020/utils/tmp4dw87jv_
max_memory 4000 MB (current use 180 MB)
Set gradient conv threshold to 3.16228e-05
E1 = -13.47683089678747  E_coul = 3.880892836244274
init E= -7.69470036393648
cond(S) = 8.669299404723427
    CPU time for initialize scf      1.03 sec, wall time      0.09 sec
  HOMO = -0.276003739660009  LUMO = 0.0177776487300502
  mo_energy =
[-2.51905718 -0.27600374  0.01777765  0.12006031  0.12006031  0.4837065 ]
E1 = -13.634805693602745  E_coul = 4.091104722670583
cycle= 1 E= -7.64246327432544  delta_E= 0.0522  |g|= 0.0888  |ddm|= 1.34
    CPU time for cycle= 1      0.25 sec, wall time      0.00 sec
  HOMO = -0.312482678096765  LUMO = 0.0710540019576964
  mo_energy =
[-2.41593687 -0.31248268  0.071054    0.14956748  0.14956748  0.58680748]
E1 = -13.631112348105573  E_coul = 4.0812372200627545
cycle= 2 E= -7.6486374314361  delta_E= -0.00617  |g|= 0.0307  |ddm|= 0.176
    CPU time for cycle= 2      0.00 sec, wall time      0.00 sec
  HOMO = -0.314307456947858  LUMO = 0.0701073705631336
  mo_energy =
[-2.42355703 -0.31430746  0.07010737  0.14915615  0.14915615  0.58997576]
E1 = -13.635502693636722  E_coul = 4.083566956638933
cycle= 3 E= -7.65069804039107  delta_E= -0.00206  |g|= 0.0117  |ddm|= 0.129
    CPU time for cycle= 3      0.00 sec, wall time      0.00 sec
  HOMO = -0.310110966808237  LUMO = 0.0703969149309165
  mo_energy =
[-2.42245202 -0.31011097  0.07039691  0.15145381  0.15145381  0.59526414]
E1 = -13.639226354570674  E_coul = 4.086863995987263
cycle= 4 E= -7.65112466197669  delta_E= -0.000427  |g|= 0.000475  |ddm|= 0.0899
    CPU time for cycle= 4      0.00 sec, wall time      0.00 sec
  HOMO = -0.310028867436623  LUMO = 0.0701361589586064
  mo_energy =
[-2.42264367 -0.31002887  0.07013616  0.15142266  0.15142266  0.594863  ]
E1 = -13.639741908650564  E_coul = 4.087379246911306
cycle= 5 E= -7.65112496513254  delta_E= -3.03e-07  |g|= 5.67e-05  |ddm|= 0.00247
    CPU time for cycle= 5      0.00 sec, wall time      0.00 sec
  HOMO = -0.309979580657951  LUMO = 0.0701824259053216
  mo_energy =
[-2.42251512 -0.30997958  0.07018243  0.15145788  0.15145788  0.59496635]
E1 = -13.639716570113793  E_coul = 4.087353907957551
cycle= 6 E= -7.65112496554952  delta_E= -4.17e-10  |g|= 1.69e-05  |ddm|= 0.000134
    CPU time for cycle= 6      0.25 sec, wall time      0.00 sec
  HOMO = -0.309979651642118  LUMO = 0.0701737601588928
  mo_energy =
[-2.42252473 -0.30997965  0.07017376  0.15145535  0.15145535  0.59495012]
E1 = -13.639731640253455  E_coul = 4.087368977816013
Extra cycle  E= -7.65112496583072  delta_E= -2.81e-10  |g|= 5.26e-06  |ddm|= 4.93e-05
    CPU time for scf_cycle      1.53 sec, wall time      0.11 sec
    CPU time for SCF      1.53 sec, wall time      0.11 sec
converged SCF energy = -7.65112496583072
